ID#,SMILES,Name,CAS,a_base,a_nN,a_nS,BCUT_SLOGP_0,GCUT_PEOE_0,GCUT_PEOE_1,GCUT_SLOGP_0,GCUT_SMR_0,logP(o/w),logS,PEOE_VSA_FPOL,PEOE_VSA_FPPOS,PEOE_VSA_PPOS,SlogP,SlogP_VSA6,VAdjEq,VSA
6.001,S=P(SC(C(=O)OCC)CC(=O)OCC)(OC)OC,malathion_noH,121-75-5,0,0,2,-2.5412621,-0.76456261,-0.38251066,-0.89264911,-0.51440489,2.0339999,-3.3211401,0.56531954,0.34097311,113.2012,2.1217999,0,0.46811688,350.61877
6.002,S(P(=O)(OC)OC)C(C(=O)OCC)CC(=O)OCC,malaoxon_noH,1634-78-2,0,0,1,-2.5454421,-0.76459628,-0.38573015,-1.2923561,-0.51440489,0.83399999,-2.0678599,0.32157776,0.14160421,45.007206,0.93519998,0,0.46811688,335.77362
6.003,S(P(=O)(OC)OC)CC(=O)NC,omethoate_noH,1113-02-6,0,1,1,-2.5952313,-0.84271729,-0.402493,-1.2921978,-0.48716274,-0.46799999,-0.88775003,0.41721889,0.2132443,46.324295,-0.20370001,0,0.61674827,226.85049